                         Program Version 4.2.1 -  RELEASE  -
|  1> # ================================================================
|  2> # Orca input file
|  3> # ================================================================
|  4> ! HF cc-pVQZ VeryTightSCF UseSym
|  5>
|  6>
|  7> * xyzfile 0 1 ../../../../chem_database/Ar.xyz
|  8>
|  9>                          ****END OF INPUT****

CARTESIAN COORDINATES (ANGSTROEM)
---------------------------------
  Ar     0.000000    0.000000    0.000000

 Total Charge           Charge          ....    0
 Multiplicity           Mult            ....    1
 Number of Electrons    NEL             ....   18
 Basis Dimension        Dim             ....   59

ORBITAL ENERGIES
----------------

  NO   OCC          E(Eh)            E(eV)    Irrep
   0   2.0000    -118.610068     -3227.5440    1-Ag
   1   2.0000     -12.321923      -335.2966    2-Ag
   2   2.0000      -9.571204      -260.4457    1-B2u
   3   2.0000      -9.571204      -260.4457    1-B1u
   4   2.0000      -9.571204      -260.4457    1-B3u
   5   2.0000      -1.277185       -34.7540    3-Ag
   6   2.0000      -0.590856       -16.0780    2-B1u
   7   2.0000      -0.590856       -16.0780    2-B3u
   8   2.0000      -0.590856       -16.0780    2-B2u
   9   0.0000       0.387054        10.5323    3-B3u
  10   0.0000       0.387054        10.5323    3-B1u
  11   0.0000       0.387054        10.5323    3-B2u
  12   0.0000       0.478321        13.0158    4-Ag
  13   0.0000       0.583121        15.8675    1-B3g

MULLIKEN ATOMIC CHARGES
-----------------------
   0 Ar:    0.000000
Sum of atomic charges:    0.0000000

LOEWDIN ATOMIC CHARGES
----------------------
   0 Ar:    0.000000

FINAL SINGLE POINT ENERGY      -526.816780173762

DIPOLE MOMENT
-------------
                                X             Y             Z
Electronic contribution:     -0.00000      -0.00000      -0.00000
Nuclear contribution   :      0.00000       0.00000       0.00000
                        -----------------------------------------
Total Dipole Moment    :     -0.00000      -0.00000      -0.00000
                        -----------------------------------------
Magnitude (a.u.)       :      0.00000
Magnitude (Debye)      :      0.00000

Rotational constants in cm-1:     0.000000     0.000000     0.000000
Rotational constants in MHz :     0.000000     0.000000     0.000000

                             ****ORCA TERMINATED NORMALLY****
TOTAL RUN TIME: 0 days 0 hours 0 minutes 5 seconds 345 msec
