                         Program Version 5.0.3 -  RELEASE  -
|  1> # ================================================================
|  2> # Orca input file
|  3> # ================================================================
|  4> ! ROHF cc-pVDZ VeryTightSCF UseSym
|  5> ! PAL4
|  6>
|  7> %scf
|  8>   Guess = HCore
|  9>   ROHF_case SAHF    # configuration averaged HF
| 10>   ROHF_NumOp   2    # 2 operators in this case: closed, open
| 11>   ROHF_NOrb[1] 3    # 3 orbitals in first open shell
| 12>   ROHF_NEl[1]  4    # 4 electrons in first open shell
| 13> end
| 14>
| 15> %basis
| 16> GTOName = "../../../../basis/aug-cc-pVQZ-CDF.bas";
| 17> newecp O
| 18>  N_core 2
| 19>  lmax d
| 20>  d 8
| 21>   1           11.84855123           6.00000000    1
| 22>   2           16.03222360        -105.02102455    2
| 23>   3           27.60691873          89.14165052    2
| 24>   4           37.08858492         -31.96562708    3
| 25>   5           19.61674323         103.05693443    3
| 26>   6           19.73095572         848.81602927    4
| 27>   7           15.11638449        -710.82937764    4
| 28>   8           15.82135756         639.21910108    4
| 29>  s 8
| 30>   1           18.64062185      -20417.09245707    2
| 31>   2           23.12735261       20432.77307300    2
| 32>   3           16.41373999       -2945.31115230    3
| 33>   4           12.82027697        2096.44628479    3
| 34>   5           24.09487030         848.86486751    3
| 35>   6           12.80442498       -2565.39940195    4
| 36>   7           18.28432789       23832.35650775    4
| 37>   8           21.58235270       70701.69079050    4
| 38>  p 8
| 39>   1           14.31926539        -335.32003597    2
| 40>   2           46.79753465         325.01768787    2
| 41>   3            9.99178896       -1398.11715802    3
| 42>   4           25.74652235       -6076.97303324    3
| 43>   5           22.77931659        7475.09019127    3
| 44>   6           11.22539981        3906.93849077    4
| 45>   7           39.68526223        3904.47201525    4
| 46>   8           43.42083420        2597.07941946    4
| 47> end
| 48>
| 49> end
| 50>
| 51> * xyzfile 0 3 ../../../../../chem_database/O.xyz
| 52>
| 53>                          ****END OF INPUT****

CARTESIAN COORDINATES (ANGSTROEM)
---------------------------------
  O      0.000000    0.000000    0.000000

 Total Charge           Charge          ....    0
 Multiplicity           Mult            ....    3
 Number of Electrons    NEL             ....    6
 Basis Dimension        Dim             ....   79

ORBITAL ENERGIES
----------------

  NO   OCC          E(Eh)            E(eV)    Irrep
   0   2.0000      -1.244348       -33.8604    1-Ag
   1   1.3333      -0.631931       -17.1957    1-B1u
   2   1.3333      -0.631931       -17.1957    1-B3u
   3   1.3333      -0.631931       -17.1957    1-B2u
   4   0.0000       0.083479         2.2716    2-B3u
   5   0.0000       0.083479         2.2716    2-B1u
   6   0.0000       0.083479         2.2716    2-B2u
   7   0.0000       0.103726         2.8225    2-Ag
   8   0.0000       0.379215        10.3190    1-B2g

MULLIKEN ATOMIC CHARGES AND SPIN POPULATIONS
--------------------------------------------
   0 O :    0.000000    2.000000
Sum of atomic charges         :    0.0000000

LOEWDIN ATOMIC CHARGES AND SPIN POPULATIONS
-------------------------------------------
   0 O :    0.000000    2.000000

FINAL SINGLE POINT ENERGY       -15.642857936340

DIPOLE MOMENT
-------------
                                X             Y             Z
Electronic contribution:     -0.00000      -0.00000       0.00000
Nuclear contribution   :      0.00000       0.00000       0.00000
                        -----------------------------------------
Total Dipole Moment    :     -0.00000      -0.00000       0.00000
                        -----------------------------------------
Magnitude (a.u.)       :      0.00000
Magnitude (Debye)      :      0.00000

Rotational constants in cm-1:     0.000000     0.000000     0.000000
Rotational constants in MHz :     0.000000     0.000000     0.000000

                             ****ORCA TERMINATED NORMALLY****
TOTAL RUN TIME: 0 days 0 hours 0 minutes 3 seconds 124 msec
