                         Program Version 5.0.3 -  RELEASE  -
|  1> # ================================================================
|  2> # Orca input file
|  3> # ================================================================
|  4> ! ROHF cc-pVDZ VeryTightSCF UseSym
|  5> ! PAL4
|  6>
|  7> %scf
|  8>   Guess = HCore
|  9> end
| 10>
| 11> %basis
| 12> GTOName = "../../../../basis/aug-cc-pVQZ-CDF.bas";
| 13> newecp Ne
| 14>  N_core 2
| 15>  lmax d
| 16>  d 8
| 17>   1           23.98355867           8.00000000    1
| 18>   2           42.70821870     4260890.85700183    2
| 19>   3           47.41797481    -4260923.85981658    2
| 20>   4           45.72840766         -69.36751949    3
| 21>   5           19.71818701         261.23598882    3
| 22>   6           47.56311105    -4230117.31478379    4
| 23>   7           32.53929099      -30703.17469857    4
| 24>   8           44.41642441   -15808501.18648128    4
| 25>  s 8
| 26>   1           31.97029845      -19825.76341055    2
| 27>   2           17.35737808       19856.89033402    2
| 28>   3           24.19205288      -59316.34709988    3
| 29>   4           20.32706051      515825.16585810    3
| 30>   5           19.81808392     -456508.81875823    3
| 31>   6           22.35158601     -148690.75885727    4
| 32>   7           28.23979799     -287991.29593392    4
| 33>   8           28.79520619      147510.03455863    4
| 34>  p 8
| 35>   1           26.47670976      -52636.05441718    2
| 36>   2           42.56666925       52623.47050847    2
| 37>   3           23.96622528     -112143.18881657    3
| 38>   4           25.17192785     -105349.00945971    3
| 39>   5           24.55238944      217492.19827629    3
| 40>   6           27.98838767      254016.86026529    4
| 41>   7           51.49563240       16112.39232378    4
| 42>   8           36.92327306      576247.07582714    4
| 43> end
| 44>
| 45> end
| 46>
| 47> * xyzfile 0 1 ../../../../../chem_database/Ne.xyz
| 48>
| 49>                          ****END OF INPUT****

CARTESIAN COORDINATES (ANGSTROEM)
---------------------------------
  Ne     0.000000    0.000000    0.000000

 Total Charge           Charge          ....    0
 Multiplicity           Mult            ....    1
 Number of Electrons    NEL             ....    8
 Basis Dimension        Dim             ....   79

ORBITAL ENERGIES
----------------

  NO   OCC          E(Eh)            E(eV)    Irrep
   0   2.0000      -1.935966       -52.6803    1-Ag
   1   2.0000      -0.849786       -23.1239    1-B1u
   2   2.0000      -0.849786       -23.1239    1-B2u
   3   2.0000      -0.849786       -23.1239    1-B3u
   4   0.0000       0.222900         6.0654    2-B3u
   5   0.0000       0.222900         6.0654    2-B1u
   6   0.0000       0.222900         6.0654    2-B2u
   7   0.0000       0.345227         9.3941    2-Ag
   8   0.0000       0.803527        21.8651    1-B3g

MULLIKEN ATOMIC CHARGES
-----------------------
   0 Ne:   -0.000000
Sum of atomic charges:   -0.0000000

LOEWDIN ATOMIC CHARGES
----------------------
   0 Ne:   -0.000000

FINAL SINGLE POINT ENERGY       -34.608920885431

DIPOLE MOMENT
-------------
                                X             Y             Z
Electronic contribution:     -0.00000       0.00000       0.00000
Nuclear contribution   :      0.00000       0.00000       0.00000
                        -----------------------------------------
Total Dipole Moment    :     -0.00000       0.00000       0.00000
                        -----------------------------------------
Magnitude (a.u.)       :      0.00000
Magnitude (Debye)      :      0.00000

Rotational constants in cm-1:     0.000000     0.000000     0.000000
Rotational constants in MHz :     0.000000     0.000000     0.000000

                             ****ORCA TERMINATED NORMALLY****
TOTAL RUN TIME: 0 days 0 hours 0 minutes 4 seconds 76 msec
