                         Program Version 6.0.1  -  RELEASE   -
|  1> # ================================================================
|  2> # Orca input file
|  3> # ================================================================
|  4> ! HF cc-pVQZ VeryTightSCF UseSym
|  5>
|  6> * xyzfile 0 1 ../../../../chem_database/He.xyz
|  7>
|  8>                          ****END OF INPUT****

CARTESIAN COORDINATES (ANGSTROEM)
---------------------------------
  He     0.000000    0.000000    0.000000

 Total Charge           Charge          ....    0
 Multiplicity           Mult            ....    1
 Number of Electrons    NEL             ....    2
 Basis Dimension        Dim             ....   30

ORBITAL ENERGIES
----------------

  NO   OCC          E(Eh)            E(eV)    Irrep
   0   2.0000      -0.917849       -24.9759    1-Ag
   1   0.0000       0.496529        13.5112    2-Ag
   2   0.0000       1.089885        29.6573    1-B1u
   3   0.0000       1.089885        29.6573    1-B3u
   4   0.0000       1.089885        29.6573    1-B2u
   5   0.0000       2.783494        75.7427    3-Ag

MULLIKEN ATOMIC CHARGES
-----------------------
   0 He:   -0.000000
Sum of atomic charges:   -0.0000000

LOEWDIN ATOMIC CHARGES
----------------------
   0 He:   -0.000000

FINAL SINGLE POINT ENERGY        -2.861514227224

DIPOLE MOMENT
-------------

Method             : SCF
Type of density    : Electron Density
Multiplicity       :   1
Irrep              :   0
Energy             :    -2.8615142272235974 Eh
Relativity type    :
Basis              : AO
                                X                 Y                 Z
Electronic contribution:     -0.000000000       0.000000000      -0.000000000
Nuclear contribution   :      0.000000000       0.000000000       0.000000000
                        -----------------------------------------
Total Dipole Moment    :     -0.000000000       0.000000000      -0.000000000
                        -----------------------------------------
Magnitude (a.u.)       :      0.000000000
Magnitude (Debye)      :      0.000000000

Rotational constants in cm-1:             0.000000             0.000000             0.000000
Rotational constants in MHz :             0.000000             0.000000             0.000000

                             ****ORCA TERMINATED NORMALLY****
TOTAL RUN TIME: 0 days 0 hours 0 minutes 1 seconds 807 msec
