                         Program Version 5.0.3 -  RELEASE  -
|  1> # ================================================================
|  2> # Orca input file
|  3> # ================================================================
|  4> ! ROHF cc-pVDZ VeryTightSCF UseSym
|  5> ! PAL4
|  6>
|  7> %scf
|  8>   Guess = HCore
|  9>   ROHF_case SAHF    # spin averaged HF
| 10>   ROHF_NumOp   2    # 2 operators in this case: closed, open
| 11>   ROHF_NOrb[1] 3    # 3 orbitals in first open shell
| 12>   ROHF_NEl[1]  2    # 2 electrons in first open shell
| 13> end
| 14>
| 15> %basis
| 16> GTOName = "../../../../basis/aug-cc-pVQZ-CDF.bas";
| 17> newecp C
| 18>  N_core 2
| 19>  lmax d
| 20>  d 8
| 21>   1           14.18038947           4.00000000    1
| 22>   2            9.98337117     -191045.80417457    2
| 23>   3           12.48203153      191036.22253941    2
| 24>   4            7.90943462          -5.44386315    3
| 25>   5            7.13014891          62.16542104    3
| 26>   6           12.72575413       44221.23987918    4
| 27>   7           10.28807138      146831.00815853    4
| 28>   8           11.48850451      286186.73250606    4
| 29>  s 8
| 30>   1            9.50142741       -3750.11048539    2
| 31>   2            5.56933451        3760.37648333    2
| 32>   3           15.38467668        -282.45495330    3
| 33>   4           12.61293221         395.21455742    3
| 34>   5            4.78267585        -112.75960412    3
| 35>   6           10.02732151       10961.18997530    4
| 36>   7            6.38496423       -7322.83872921    4
| 37>   8            9.56239560      -18326.95925617    4
| 38>  p 8
| 39>   1            8.69277599      -69979.38345477    2
| 40>   2            9.78057783       69976.82776410    2
| 41>   3            7.36054009       -7317.21246438    3
| 42>   4            9.35997886        1187.74671018    3
| 43>   5            6.97849340        6129.46575421    3
| 44>   6            9.23165085       76379.77670179    4
| 45>   7            5.85803103        -269.92729934    4
| 46>   8           95.35707275         -11.14397361    4
| 47> end
| 48>
| 49> end
| 50>
| 51> * xyzfile 0 3 ../../../../../chem_database/C.xyz
| 52>
| 53>                          ****END OF INPUT****

CARTESIAN COORDINATES (ANGSTROEM)
---------------------------------
  C      0.000000    0.000000    0.000000

 Total Charge           Charge          ....    0
 Multiplicity           Mult            ....    3
 Number of Electrons    NEL             ....    4
 Basis Dimension        Dim             ....   79

ORBITAL ENERGIES
----------------

  NO   OCC          E(Eh)            E(eV)    Irrep
   0   2.0000      -0.706212       -19.2170    1-Ag
   1   0.6667      -0.433245       -11.7892    1-B3u
   2   0.6667      -0.433245       -11.7892    1-B2u
   3   0.6667      -0.433245       -11.7892    1-B1u
   4   0.0000       0.008353         0.2273    2-B3u
   5   0.0000       0.008353         0.2273    2-B2u
   6   0.0000       0.008353         0.2273    2-B1u
   7   0.0000      -0.009197        -0.2503    2-Ag
   8   0.0000       0.133207         3.6247    1-B3g

MULLIKEN ATOMIC CHARGES AND SPIN POPULATIONS
--------------------------------------------
   0 C :   -0.000000    2.000000
Sum of atomic charges         :   -0.0000000

LOEWDIN ATOMIC CHARGES AND SPIN POPULATIONS
-------------------------------------------
   0 C :   -0.000000    2.000000

FINAL SINGLE POINT ENERGY        -5.316187135481

DIPOLE MOMENT
-------------
                                X             Y             Z
Electronic contribution:      0.00000       0.00000       0.00000
Nuclear contribution   :      0.00000       0.00000       0.00000
                        -----------------------------------------
Total Dipole Moment    :      0.00000       0.00000       0.00000
                        -----------------------------------------
Magnitude (a.u.)       :      0.00000
Magnitude (Debye)      :      0.00000

Rotational constants in cm-1:     0.000000     0.000000     0.000000
Rotational constants in MHz :     0.000000     0.000000     0.000000

                             ****ORCA TERMINATED NORMALLY****
TOTAL RUN TIME: 0 days 0 hours 0 minutes 3 seconds 44 msec
