                         Program Version 5.0.3 -  RELEASE  -
|  1> # ================================================================
|  2> # Orca input file
|  3> # ================================================================
|  4> ! ROHF cc-pVDZ VeryTightSCF UseSym
|  5> ! PAL4
|  6>
|  7> %scf
|  8>   Guess = HCore
|  9> end
| 10>
| 11> %basis
| 12> GTOName = "../../../../basis/aug-cc-pVQZ-CDF.bas";
| 13> newecp H
| 14>  N_core 0
| 15>  lmax d
| 16>  d 8
| 17>   1           24.82565390           1.00000000    1
| 18>   2           43.21739125         399.93183331    2
| 19>   3           25.99656714        -404.75536968    2
| 20>   4           40.09801481         -18.40342127    3
| 21>   5           25.58653485          43.22907516    3
| 22>   6           35.46228124       27523.80389205    4
| 23>   7           34.31169613      -27904.33230409    4
| 24>   8           30.34037826        7142.28877990    4
| 25>  s 8
| 26>   1           30.78554662      -79926.55181291    2
| 27>   2           40.15197511       79924.13518241    2
| 28>   3           42.15431331         957.82379649    3
| 29>   4           24.96549455     -793199.31748370    3
| 30>   5           24.94391708      792241.49368720    3
| 31>   6           37.03062672      558531.47868219    4
| 32>   7           29.63405783      313637.56757093    4
| 33>   8           27.58560461     -123639.74640927    4
| 34>  p 8
| 35>   1           39.55054433        1385.30516773    2
| 36>   2           26.07956394       -1385.89131666    2
| 37>   3           16.48182356         -18.51387747    3
| 38>   4            9.81046706           0.64133794    3
| 39>   5           17.90486779          17.87253953    3
| 40>   6           33.50419086      196902.37128298    4
| 41>   7           33.17785501     -198268.80486364    4
| 42>   8           29.62142434       20012.56582766    4
| 43> end
| 44>
| 45> end
| 46>
| 47> * xyzfile 0 2 ../../../../../chem_database/H.xyz
| 48>
| 49>                          ****END OF INPUT****

CARTESIAN COORDINATES (ANGSTROEM)
---------------------------------
  H      0.000000    0.000000    0.000000

 Total Charge           Charge          ....    0
 Multiplicity           Mult            ....    2
 Number of Electrons    NEL             ....    1
 Basis Dimension        Dim             ....   46

ORBITAL ENERGIES
----------------

  NO   OCC          E(Eh)            E(eV)    Irrep
   0   1.0000      -0.500000       -13.6057    1-Ag
   1   0.0000       0.048376         1.3164    2-Ag
   2   0.0000       0.167225         4.5504    1-B1u
   3   0.0000       0.167225         4.5504    1-B3u
   4   0.0000       0.167225         4.5504    1-B2u
   5   0.0000       0.327545         8.9129    3-Ag

MULLIKEN ATOMIC CHARGES AND SPIN POPULATIONS
--------------------------------------------
   0 H :   -0.000000    1.000000
Sum of atomic charges         :   -0.0000000

LOEWDIN ATOMIC CHARGES AND SPIN POPULATIONS
-------------------------------------------
   0 H :   -0.000000    1.000000

FINAL SINGLE POINT ENERGY        -0.499999513940

DIPOLE MOMENT
-------------
                                X             Y             Z
Electronic contribution:      0.00000       0.00000      -0.00000
Nuclear contribution   :      0.00000       0.00000       0.00000
                        -----------------------------------------
Total Dipole Moment    :      0.00000       0.00000      -0.00000
                        -----------------------------------------
Magnitude (a.u.)       :      0.00000
Magnitude (Debye)      :      0.00000

Rotational constants in cm-1:     0.000000     0.000000     0.000000
Rotational constants in MHz :     0.000000     0.000000     0.000000

                             ****ORCA TERMINATED NORMALLY****
TOTAL RUN TIME: 0 days 0 hours 0 minutes 1 seconds 724 msec
